 Gaussian 09, Revision B.01,
 Gaussian 09:  EM64L-G09RevB.01 12-Aug-2010

 -----------------------------------------------------
 # QCISD aug-cc-pvtz nosymm density=current output=wfn
 -----------------------------------------------------

 ----------------------
 clch3f_ts-wavefunction
 ----------------------
 Symbolic Z-matrix:
 Charge = -1 Multiplicity = 1

                          Input orientation:
 ---------------------------------------------------------------------
 Center     Atomic      Atomic             Coordinates (Angstroms)
 Number     Number       Type             X           Y           Z
 ---------------------------------------------------------------------
      1          6           0        0.000175    0.000029   -0.497709
      2          1           0        0.000019   -1.062570   -0.620726
      3          1           0       -0.911312    0.526365   -0.621245
      4          1           0        0.911750    0.526132   -0.621570
      5         17           0        0.000555    0.000962    1.644718
      6          9           0       -0.000186   -0.000921   -2.593468
 ---------------------------------------------------------------------

 SCF Done:  E(RHF) =  -598.617050338     A.U. after   12 cycles
 E2 =    -0.6742947972D+00 EUMP2 =    -0.59929134513536D+03

 Mulliken atomic charges:
              1
     1  C   -0.828382
     2  H    0.430967
     3  H    0.436444
     4  H    0.436446
     5  Cl  -0.628414
     6  F   -0.847061
 Sum of Mulliken atomic charges =  -1.00000

 Dipole moment (field-independent basis, Debye):
    X=             -0.0006    Y=             -0.0004    Z=              4.0641  Tot=              4.0641
 Quadrupole moment (field-independent basis, Debye-Ang):
   XX=            -28.1912   YY=            -28.1774   ZZ=            -62.8337
   XY=              0.0000   XZ=             -0.0050   YZ=             -0.0149

 Normal termination of Gaussian 09 at Sun Aug 23 23:46:10 2020.
