 Gaussian 09, Revision B.01,
 Gaussian 09:  EM64L-G09RevB.01 12-Aug-2010

 -----------------------------------------------------
 # QCISD aug-cc-pvtz nosymm density=current output=wfn
 -----------------------------------------------------

 ----------------------
 clch3f_ts-wavefunction
 ----------------------
 Symbolic Z-matrix:
 Charge = -1 Multiplicity = 1

                          Input orientation:
 ---------------------------------------------------------------------
 Center     Atomic      Atomic             Coordinates (Angstroms)
 Number     Number       Type             X           Y           Z
 ---------------------------------------------------------------------
      1          6           0        0.000175    0.000029   -0.497709
      2          1           0        0.000019   -1.052570   -0.620726
      3          1           0       -0.911312    0.526365   -0.621245
      4          1           0        0.911750    0.526132   -0.611570
      5         17           0        0.000555    0.000962    1.644718
      6          9           0       -0.000186   -0.000921   -2.593468
 ---------------------------------------------------------------------

 SCF Done:  E(RHF) =  -598.617115445     A.U. after   12 cycles
 E2 =    -0.6741230956D+00 EUMP2 =    -0.59929123854015D+03

 Mulliken atomic charges:
              1
     1  C   -0.834167
     2  H    0.436909
     3  H    0.436904
     4  H    0.436756
     5  Cl  -0.629172
     6  F   -0.847231
 Sum of Mulliken atomic charges =  -1.00000

 Dipole moment (field-independent basis, Debye):
    X=             -0.0003    Y=              0.0009    Z=              4.0588  Tot=              4.0588
 Quadrupole moment (field-independent basis, Debye-Ang):
   XX=            -28.1792   YY=            -28.1800   ZZ=            -62.8306
   XY=              0.0007   XZ=              0.0068   YZ=             -0.0077

 Normal termination of Gaussian 09 at Mon Aug 24 06:58:22 2020.
