 Gaussian 09, Revision B.01,
 Gaussian 09:  EM64L-G09RevB.01 12-Aug-2010

 -----------------------------------------------------
 # QCISD aug-cc-pvtz nosymm density=current output=wfn
 -----------------------------------------------------

 ----------------------
 clch3f_ts-wavefunction
 ----------------------
 Symbolic Z-matrix:
 Charge = -1 Multiplicity = 1

                          Input orientation:
 ---------------------------------------------------------------------
 Center     Atomic      Atomic             Coordinates (Angstroms)
 Number     Number       Type             X           Y           Z
 ---------------------------------------------------------------------
      1          6           0        0.000175    0.000029   -0.497709
      2          1           0        0.000019   -1.052570   -0.620726
      3          1           0       -0.911312    0.526365   -0.621245
      4          1           0        0.911750    0.526132   -0.621570
      5         17           0        0.000555    0.000962    1.644718
      6          9           0       -0.000186   -0.010921   -2.593468
 ---------------------------------------------------------------------

 SCF Done:  E(RHF) =  -598.617122995     A.U. after   12 cycles
 E2 =    -0.6741425861D+00 EUMP2 =    -0.59929126558073D+03

 Mulliken atomic charges:
              1
     1  C   -0.833660
     2  H    0.437129
     3  H    0.436110
     4  H    0.436112
     5  Cl  -0.628515
     6  F   -0.847176
 Sum of Mulliken atomic charges =  -1.00000

 Dipole moment (field-independent basis, Debye):
    X=             -0.0006    Y=              0.0355    Z=              4.0664  Tot=              4.0665
 Quadrupole moment (field-independent basis, Debye-Ang):
   XX=            -28.1817   YY=            -28.1815   ZZ=            -62.8204
   XY=              0.0000   XZ=             -0.0050   YZ=             -0.1162

 Normal termination of Gaussian 09 at Mon Aug 24 13:06:05 2020.
