 Gaussian 09, Revision B.01,
 Gaussian 09:  EM64L-G09RevB.01 12-Aug-2010

 -----------------------------------------------------
 # QCISD aug-cc-pvtz nosymm density=current output=wfn
 -----------------------------------------------------

 ----------------------
 clch3f_ts-wavefunction
 ----------------------
 Symbolic Z-matrix:
 Charge = -1 Multiplicity = 1

                          Input orientation:
 ---------------------------------------------------------------------
 Center     Atomic      Atomic             Coordinates (Angstroms)
 Number     Number       Type             X           Y           Z
 ---------------------------------------------------------------------
      1          6           0        0.000175    0.000029   -0.497709
      2          1           0        0.000019   -1.052570   -0.620726
      3          1           0       -0.911312    0.526365   -0.621245
      4          1           0        0.911750    0.526132   -0.631570
      5         17           0        0.000555    0.000962    1.644718
      6          9           0       -0.000186   -0.000921   -2.593468
 ---------------------------------------------------------------------

 SCF Done:  E(RHF) =  -598.617114814     A.U. after   12 cycles
 E2 =    -0.6741663321D+00 EUMP2 =    -0.59929128114564D+03

 Mulliken atomic charges:
              1
     1  C   -0.833115
     2  H    0.435998
     3  H    0.435992
     4  H    0.436092
     5  Cl  -0.627873
     6  F   -0.847094
 Sum of Mulliken atomic charges =  -1.00000

 Dipole moment (field-independent basis, Debye):
    X=             -0.0009    Y=              0.0005    Z=              4.0734  Tot=              4.0734
 Quadrupole moment (field-independent basis, Debye-Ang):
   XX=            -28.1837   YY=            -28.1829   ZZ=            -62.8096
   XY=             -0.0007   XZ=             -0.0167   YZ=             -0.0212

 Normal termination of Gaussian 09 at Mon Aug 24 07:29:51 2020.
