 Gaussian 09, Revision B.01,
 Gaussian 09:  EM64L-G09RevB.01 12-Aug-2010

 ---------------------------------------------------------------------
 #opt=(TS, calcall, noeigentest) HF aug-cc-pvtz density=current nosymm
 ---------------------------------------------------------------------

 -------------------
 Title Card Required
 -------------------
 Symbolic Z-matrix:
 Charge = -1 Multiplicity = 1

 SCF Done:  E(RHF) =  -598.615846718     A.U. after   12 cycles
 SCF Done:  E(RHF) =  -598.617094909     A.U. after   10 cycles
 SCF Done:  E(RHF) =  -598.617124356     A.U. after    9 cycles
 Optimization completed.
    -- Stationary point found.

                          Input orientation:
 ---------------------------------------------------------------------
 Center     Atomic      Atomic             Coordinates (Angstroms)
 Number     Number       Type             X           Y           Z
 ---------------------------------------------------------------------
      1          6           0        0.000175    0.000029   -0.497709
      2          1           0        0.000019   -1.052570   -0.620726
      3          1           0       -0.911312    0.526365   -0.621245
      4          1           0        0.911750    0.526132   -0.621570
      5         17           0        0.000555    0.000962    1.644718
      6          9           0       -0.000186   -0.000921   -2.593468
 ---------------------------------------------------------------------

 Alpha  occ. eigenvalues -- -104.61122 -25.91814 -11.14555 -10.33587  -7.80222
 Alpha  occ. eigenvalues --   -7.80151  -7.80151  -1.17349  -0.87928  -0.75763
 Alpha  occ. eigenvalues --   -0.46181  -0.46181  -0.31798  -0.27275  -0.27275
 Alpha  occ. eigenvalues --   -0.24758  -0.24758  -0.23090
 Alpha virt. eigenvalues --    0.14808   0.15258   0.15258   0.19032   0.25053
 Alpha virt. eigenvalues --    0.25053   0.25128   0.26339   0.26339   0.27892
 Alpha virt. eigenvalues --    0.33812   0.34652   0.34652   0.36533   0.41004

 Mulliken atomic charges:
              1
     1  C   -0.730153
     2  H    0.450313
     3  H    0.450308
     4  H    0.450310
     5  Cl  -0.707294
     6  F   -0.913485
 Sum of Mulliken atomic charges =  -1.00000

 Dipole moment (field-independent basis, Debye):
    X=             -0.0006    Y=              0.0007    Z=              4.0132  Tot=              4.0132
 Quadrupole moment (field-independent basis, Debye-Ang):
   XX=            -27.5543   YY=            -27.5543   ZZ=            -64.1558
   XY=              0.0000   XZ=             -0.0053   YZ=             -0.0153

  Exact polarizability:  34.174   0.000  34.174   0.005   0.014  64.832
 Approx polarizability:  31.976   0.000  31.976   0.003   0.007  47.050

 ******    1 imaginary frequencies (negative Signs) ******

                     1                      2                      3
                     A                      A                      A
 Frequencies --  -464.8183               236.5324               236.5350
 Red. masses --    12.8384                 4.3495                 4.3496
 Frc consts  --     1.6343                 0.1434                 0.1434
 IR Inten    --  1066.6689                30.2135                30.2135

                     4                      5                      6
                     A                      A                      A
 Frequencies --   275.3421              1038.0705              1038.0764
 Red. masses --    22.8321                 1.0336                 1.0336
 Frc consts  --     1.0199                 0.6562                 0.6562
 IR Inten    --     3.7690                 0.1052                 0.1052

                     7                      8                      9
                     A                      A                      A
 Frequencies --  1271.9978              1536.0668              1536.0686
 Red. masses --     1.0524                 1.0963                 1.0963
 Frc consts  --     1.0032                 1.5241                 1.5241
 IR Inten    --    76.3031                 4.9995                 4.9996

                    10                     11                     12
                     A                      A                      A
 Frequencies --  3356.9706              3548.4167              3548.4268
 Red. masses --     1.0100                 1.1238                 1.1238
 Frc consts  --     6.7058                 8.3373                 8.3374
 IR Inten    --     0.0663                 0.4871                 0.4871

 - Thermochemistry -
 -------------------
 Temperature   298.150 Kelvin.  Pressure   1.00000 Atm.
 Atom     1 has atomic number  6 and mass  12.00000

 Molecular mass:    68.99073 amu.
 Principal axes and moments of inertia in atomic units:
                           1         2         3
     Eigenvalues --    11.96152 814.88370 814.88372
           X            0.00017  -0.44398   0.89604
           Y            0.00044   0.89604   0.44398
           Z            1.00000  -0.00032  -0.00035
 This molecule is an asymmetric top.
 Rotational symmetry number  1.
 Rotational temperatures (Kelvin)      7.24104     0.10629     0.10629
 Rotational constants (GHZ):         150.87898     2.21472     2.21472
    1 imaginary frequencies ignored.
 Zero-point vibrational energy     105406.0 (Joules/Mol)
                                   25.19263 (Kcal/Mol)
 Warning -- explicit consideration of   3 degrees of freedom as
           vibrations may cause significant error
 Vibrational temperatures:    340.32   340.32   396.16  1493.55  1493.56
          (Kelvin)           1830.12  2210.05  2210.06  4829.93  5105.37
                             5105.39

 Zero-point correction=                           0.040147 (Hartree/Particle)
 Thermal correction to Energy=                    0.044527
 Thermal correction to Enthalpy=                  0.045472
 Thermal correction to Gibbs Free Energy=         0.013337
 Sum of electronic and zero-point Energies=           -598.576977
 Sum of electronic and thermal Energies=              -598.572597
 Sum of electronic and thermal Enthalpies=            -598.571653
 Sum of electronic and thermal Free Energies=         -598.603787

                     E (Thermal)             CV                S
                      KCal/Mol        Cal/Mol-Kelvin    Cal/Mol-Kelvin
 Total                   27.941             12.219             67.632
 Electronic               0.000              0.000              0.000
 Translational            0.889              2.981             38.612
 Rotational               0.889              2.981             23.589
 Vibrational             26.164              6.258              5.431
 Vibration     1          0.655              1.785              1.829
 Vibration     2          0.655              1.785              1.829
 Vibration     3          0.677              1.719              1.562

 Normal termination of Gaussian 09 at Sun Jun 21 19:14:53 2020.
