 Gaussian 09, Revision B.01,
 Gaussian 09:  EM64L-G09RevB.01 12-Aug-2010

 ----------------------------------------------------------------------
 #freq=noraman QCISD aug-cc-pvtz density=current iop(7/33=1) nosym form
 check=forcecart SCF=maxcycle=300
 ----------------------------------------------------------------------

 ---------------------
 clch3f_ts-frequencies
 ---------------------
 Symbolic Z-matrix:
 Charge = -1 Multiplicity = 1

                          Input orientation:
 ---------------------------------------------------------------------
 Center     Atomic      Atomic             Coordinates (Angstroms)
 Number     Number       Type             X           Y           Z
 ---------------------------------------------------------------------
      1          6           0        0.000175    0.000029   -0.497709
      2          1           0        0.000019   -1.052570   -0.620726
      3          1           0       -0.911312    0.526365   -0.621245
      4          1           0        0.911750    0.526132   -0.621570
      5         17           0        0.000555    0.000962    1.644718
      6          9           0       -0.000186   -0.000921   -2.593468
 ---------------------------------------------------------------------

 SCF Done:  E(RHF) =  -598.617124356     A.U. after   12 cycles
 E2 =    -0.6741427614D+00 EUMP2 =    -0.59929126711708D+03
 SCF Done:  E(RHF) =  -598.617122990     A.U. after    6 cycles
 E2 =    -0.6741428398D+00 EUMP2 =    -0.59929126583000D+03
 SCF Done:  E(RHF) =  -598.617122995     A.U. after    7 cycles
 E2 =    -0.6741428155D+00 EUMP2 =    -0.59929126581020D+03
 SCF Done:  E(RHF) =  -598.617122992     A.U. after    6 cycles
 E2 =    -0.6741428466D+00 EUMP2 =    -0.59929126583850D+03
 SCF Done:  E(RHF) =  -598.617122993     A.U. after    7 cycles
 E2 =    -0.6741428105D+00 EUMP2 =    -0.59929126580360D+03
 SCF Done:  E(RHF) =  -598.617124433     A.U. after    7 cycles
 E2 =    -0.6741609918D+00 EUMP2 =    -0.59929128542438D+03
 SCF Done:  E(RHF) =  -598.617124479     A.U. after    8 cycles
 E2 =    -0.6741245702D+00 EUMP2 =    -0.59929124904878D+03
 SCF Done:  E(RHF) =  -598.617124260     A.U. after    5 cycles
 E2 =    -0.6741427780D+00 EUMP2 =    -0.59929126703832D+03
 SCF Done:  E(RHF) =  -598.617124260     A.U. after    6 cycles
 E2 =    -0.6741427858D+00 EUMP2 =    -0.59929126704612D+03
 SCF Done:  E(RHF) =  -598.617123579     A.U. after    7 cycles
 E2 =    -0.6741277518D+00 EUMP2 =    -0.59929125133121D+03
 E2 =    -0.6741578227D+00 EUMP2 =    -0.59929128144311D+03
 E2 =    -0.6741406329D+00 EUMP2 =    -0.59929126492535D+03
 E2 =    -0.6741449421D+00 EUMP2 =    -0.59929126917667D+03
 E2 =    -0.6741297779D+00 EUMP2 =    -0.59929125352600D+03
 E2 =    -0.6741558060D+00 EUMP2 =    -0.59929127958818D+03
 E2 =    -0.6741502923D+00 EUMP2 =    -0.59929127439672D+03
 E2 =    -0.6741352820D+00 EUMP2 =    -0.59929125936795D+03
 E2 =    -0.6741406258D+00 EUMP2 =    -0.59929126491589D+03
 E2 =    -0.6741449492D+00 EUMP2 =    -0.59929126918600D+03
 E2 =    -0.6741557880D+00 EUMP2 =    -0.59929127957264D+03
 E2 =    -0.6741297580D+00 EUMP2 =    -0.59929125350336D+03
 E2 =    -0.6741502890D+00 EUMP2 =    -0.59929127439504D+03
 E2 =    -0.6741352853D+00 EUMP2 =    -0.59929125936992D+03
 E2 =    -0.6741406211D+00 EUMP2 =    -0.59929126491142D+03
 E2 =    -0.6741449539D+00 EUMP2 =    -0.59929126919039D+03
 E2 =    -0.6741427650D+00 EUMP2 =    -0.59929126709584D+03
 E2 =    -0.6741427749D+00 EUMP2 =    -0.59929126710566D+03
 SCF Done:  E(RHF) =  -598.617124331     A.U. after    6 cycles
 E2 =    -0.6741427593D+00 EUMP2 =    -0.59929126709020D+03
 SCF Done:  E(RHF) =  -598.617124331     A.U. after    6 cycles
 E2 =    -0.6741427806D+00 EUMP2 =    -0.59929126711128D+03
 SCF Done:  E(RHF) =  -598.617124300     A.U. after    6 cycles
 E2 =    -0.6741201493D+00 EUMP2 =    -0.59929124444930D+03
 SCF Done:  E(RHF) =  -598.617124222     A.U. after    7 cycles
 E2 =    -0.6741653752D+00 EUMP2 =    -0.59929128959675D+03
 SCF Done:  E(RHF) =  -598.617124342     A.U. after    5 cycles
 E2 =    -0.6741427642D+00 EUMP2 =    -0.59929126710604D+03
 SCF Done:  E(RHF) =  -598.617124343     A.U. after    6 cycles
 E2 =    -0.6741427581D+00 EUMP2 =    -0.59929126710061D+03
 SCF Done:  E(RHF) =  -598.617124343     A.U. after    5 cycles
 E2 =    -0.6741427675D+00 EUMP2 =    -0.59929126711075D+03
 SCF Done:  E(RHF) =  -598.617124341     A.U. after    6 cycles
 E2 =    -0.6741427561D+00 EUMP2 =    -0.59929126709720D+03
 SCF Done:  E(RHF) =  -598.617124203     A.U. after    7 cycles
 E2 =    -0.6741536351D+00 EUMP2 =    -0.59929127783836D+03
 SCF Done:  E(RHF) =  -598.617124401     A.U. after    7 cycles
 E2 =    -0.6741319139D+00 EUMP2 =    -0.59929125631498D+03

 Alpha  occ. eigenvalues -- -104.61131 -25.91805 -11.14561 -10.33596  -7.80231
 Alpha  occ. eigenvalues --   -7.80160  -7.80160  -1.17336  -0.87936  -0.75769
 Alpha  occ. eigenvalues --   -0.46185  -0.46185  -0.31793  -0.27266  -0.27266
 Alpha  occ. eigenvalues --   -0.24765  -0.24765  -0.23094
 Alpha virt. eigenvalues --    0.14807   0.15258   0.15258   0.19031   0.25052
 Alpha virt. eigenvalues --    0.25052   0.25127   0.26337   0.26337   0.27891
 Alpha virt. eigenvalues --    0.33800   0.34650   0.34650   0.36537   0.41001

 Mulliken atomic charges:
              1
     1  C   -0.833685
     2  H    0.436484
     3  H    0.436479
     4  H    0.436481
     5  Cl  -0.628278
     6  F   -0.847481
 Sum of Mulliken atomic charges =  -1.00000

 Dipole moment (field-independent basis, Debye):
    X=             -0.0006    Y=              0.0007    Z=              4.0758  Tot=              4.0758
 Quadrupole moment (field-independent basis, Debye-Ang):
   XX=            -28.1811   YY=            -28.1811   ZZ=            -62.8438
   XY=              0.0000   XZ=             -0.0050   YZ=             -0.0145

 ******    1 imaginary frequencies (negative Signs) ******

                     1                      2                      3
                     A                      A                      A
 Frequencies --  -466.0372               236.5521               236.5579
 Red. masses --    12.8500                 4.2963                 4.2962
 Frc consts  --     1.6443                 0.1416                 0.1416
 IR Inten    --  1216.7076                22.2406                22.2586

                     4                      5                      6
                     A                      A                      A
 Frequencies --   267.8485               914.8049               914.8127
 Red. masses --    22.8526                 1.0380                 1.0380
 Frc consts  --     0.9660                 0.5118                 0.5118
 IR Inten    --     2.6449                 0.1320                 0.1319

                     7                      8                      9
                     A                      A                      A
 Frequencies --  1111.2144              1415.9053              1415.9141
 Red. masses --     1.0521                 1.0964                 1.0964
 Frc consts  --     0.7654                 1.2951                 1.2951
 IR Inten    --    51.0098                 3.7490                 3.7557

                    10                     11                     12
                     A                      A                      A
 Frequencies --  3309.2268              3500.0046              3500.0267
 Red. masses --     1.0101                 1.1221                 1.1221
 Frc consts  --     6.5175                 8.0990                 8.0991
 IR Inten    --     0.0064                 0.1744                 0.1693

 - Thermochemistry -
 -------------------
 Temperature   298.150 Kelvin.  Pressure   1.00000 Atm.
 Atom     1 has atomic number  6 and mass  12.00000

 Molecular mass:    68.99073 amu.
 Principal axes and moments of inertia in atomic units:
                           1         2         3
     Eigenvalues --    11.96151 814.88376 814.88377
           X            0.00018  -0.57058   0.82124
           Y            0.00044   0.82124   0.57058
           Z            1.00000  -0.00026  -0.00040
 This molecule is an asymmetric top.
 Rotational symmetry number  1.
 Rotational temperatures (Kelvin)      7.24104     0.10629     0.10629
 Rotational constants (GHZ):         150.87907     2.21472     2.21472
    1 imaginary frequencies ignored.
 Zero-point vibrational energy     100623.1 (Joules/Mol)
                                   24.04950 (Kcal/Mol)
 Warning -- explicit consideration of   3 degrees of freedom as
           vibrations may cause significant error
 Vibrational temperatures:    340.35   340.35   385.37  1316.20  1316.21
          (Kelvin)           1598.79  2037.17  2037.18  4761.23  5035.72
                             5035.75

 Zero-point correction=                           0.038325 (Hartree/Particle)
 Thermal correction to Energy=                    0.042771
 Thermal correction to Enthalpy=                  0.043715
 Thermal correction to Gibbs Free Energy=         0.011490
 Sum of electronic and zero-point Energies=           -599.280843
 Sum of electronic and thermal Energies=              -599.276397
 Sum of electronic and thermal Enthalpies=            -599.275453
 Sum of electronic and thermal Free Energies=         -599.307678

                     E (Thermal)             CV                S
                      KCal/Mol        Cal/Mol-Kelvin    Cal/Mol-Kelvin
 Total                   26.839             12.695             67.824
 Electronic               0.000              0.000              0.000
 Translational            0.889              2.981             38.612
 Rotational               0.889              2.981             23.589
 Vibrational             25.062              6.733              5.624
 Vibration     1          0.655              1.785              1.829
 Vibration     2          0.655              1.785              1.829
 Vibration     3          0.673              1.732              1.610

 Normal termination of Gaussian 09 at Fri Jul 24 21:36:24 2020.
