 Gaussian 09, Revision A.01,
 Gaussian 09:  EM64L-G09RevA.01  8-May-2009

 -----------------------------------------------------
 # QCISD aug-cc-pvtz nosymm density=current output=wfn
 -----------------------------------------------------

 ----------
 title line
 ----------
 Symbolic Z-matrix:
 Charge = -1 Multiplicity = 1

                          Input orientation:
 ---------------------------------------------------------------------
 Center     Atomic      Atomic             Coordinates (Angstroms)
 Number     Number       Type             X           Y           Z
 ---------------------------------------------------------------------
      1          6           0        0.000175    0.000029   -0.497709
      2          1           0        0.000019   -1.052570   -0.620726
      3          1           0       -0.911312    0.526365   -0.621245
      4          1           0        0.911750    0.526132   -0.621570
      5         17           0       -0.009445    0.000962    1.644718
      6          9           0       -0.000186   -0.000921   -2.593460
 ---------------------------------------------------------------------

 SCF Done:  E(RHF) =  -598.617121867     A.U. after   12 cycles
 E2 =    -0.6741426177D+00 EUMP2 =    -0.59929126448450D+03

 Mulliken atomic charges:
              1
     1  C   -0.833671
     2  H    0.436455
     3  H    0.436628
     4  H    0.436280
     5  Cl  -0.628532
     6  F   -0.847160
 Sum of Mulliken atomic charges =  -1.00000

 Dipole moment (field-independent basis, Debye):
    X=              0.0250    Y=              0.0007    Z=              4.0659  Tot=              4.0660
 Quadrupole moment (field-independent basis, Debye-Ang):
   XX=            -28.1816   YY=            -28.1814   ZZ=            -62.8201
   XY=              0.0001   XZ=              0.0380   YZ=             -0.0145

 Normal termination of Gaussian 09 at Fri Aug 13 12:06:44 2021.
