 Gaussian 09, Revision B.01,
 Gaussian 09:  EM64L-G09RevB.01 12-Aug-2010

 -----------------------------------------------------
 # QCISD aug-cc-pvtz nosymm density=current output=wfn
 -----------------------------------------------------

 ----------
 title line
 ----------
 Symbolic Z-matrix:
 Charge = -1 Multiplicity = 1

                          Input orientation:
 ---------------------------------------------------------------------
 Center     Atomic      Atomic             Coordinates (Angstroms)
 Number     Number       Type             X           Y           Z
 ---------------------------------------------------------------------
      1          6           0        0.000175    0.000029   -0.497709
      2          1           0        0.000019   -1.052570   -0.620726
      3          1           0       -0.911312    0.526365   -0.621245
      4          1           0        0.921750    0.526132   -0.621570
      5         17           0        0.000555    0.000962    1.644718
      6          9           0       -0.000186   -0.000921   -2.593460
 ---------------------------------------------------------------------

 SCF Done:  E(RHF) =  -598.617066262     A.U. after   12 cycles
 E2 =    -0.6742747465D+00 EUMP2 =    -0.59929134100859D+03

 Mulliken atomic charges:
              1
     1  C   -0.829102
     2  H    0.435979
     3  H    0.436909
     4  H    0.431719
     5  Cl  -0.628432
     6  F   -0.847073
 Sum of Mulliken atomic charges =  -1.00000

 Dipole moment (field-independent basis, Debye):
    X=              0.0011    Y=             -0.0002    Z=              4.0643  Tot=              4.0643
 Quadrupole moment (field-independent basis, Debye-Ang):
   XX=            -28.1734   YY=            -28.1945   ZZ=            -62.8317
   XY=              0.0008   XZ=             -0.0055   YZ=             -0.0129

 Normal termination of Gaussian 09 at Tue Aug 10 21:51:27 2021.
