 Gaussian 09, Revision B.01,
 Gaussian 09:  EM64L-G09RevB.01 12-Aug-2010

 -----------------------------------------------------
 # QCISD aug-cc-pvtz nosymm density=current output=wfn
 -----------------------------------------------------

 ----------
 title line
 ----------
 Symbolic Z-matrix:
 Charge = -1 Multiplicity = 1

                          Input orientation:
 ---------------------------------------------------------------------
 Center     Atomic      Atomic             Coordinates (Angstroms)
 Number     Number       Type             X           Y           Z
 ---------------------------------------------------------------------
      1          6           0        0.000175    0.000029   -0.497709
      2          1           0        0.000019   -1.052570   -0.620726
      3          1           0       -0.911312    0.526365   -0.621245
      4          1           0        0.911750    0.526132   -0.621570
      5         17           0        0.000555    0.000962    1.644718
      6          9           0        0.009814   -0.000921   -2.593460
 ---------------------------------------------------------------------

 SCF Done:  E(RHF) =  -598.617123003     A.U. after   12 cycles
 E2 =    -0.6741427396D+00 EUMP2 =    -0.59929126574254D+03

 Mulliken atomic charges:
              1
     1  C   -0.833660
     2  H    0.436454
     3  H    0.435861
     4  H    0.437036
     5  Cl  -0.628519
     6  F   -0.847171
 Sum of Mulliken atomic charges =  -1.00000

 Dipole moment (field-independent basis, Debye):
    X=             -0.0354    Y=              0.0007    Z=              4.0662  Tot=              4.0664
 Quadrupole moment (field-independent basis, Debye-Ang):
   XX=            -28.1817   YY=            -28.1814   ZZ=            -62.8202
   XY=              0.0003   XZ=              0.0968   YZ=             -0.0145

 Normal termination of Gaussian 09 at Thu Aug 12 17:51:57 2021.
