 Gaussian 09, Revision B.01,
 Gaussian 09:  EM64L-G09RevB.01 12-Aug-2010

 -----------------------------------------------------
 # QCISD aug-cc-pvtz nosymm density=current output=wfn
 -----------------------------------------------------

 ----------
 title line
 ----------
 Symbolic Z-matrix:
 Charge = -1 Multiplicity = 1

                          Input orientation:
 ---------------------------------------------------------------------
 Center     Atomic      Atomic             Coordinates (Angstroms)
 Number     Number       Type             X           Y           Z
 ---------------------------------------------------------------------
      1          6           0        0.000175    0.000029   -0.507709
      2          1           0        0.000019   -1.052570   -0.620726
      3          1           0       -0.911312    0.526365   -0.621245
      4          1           0        0.911750    0.526132   -0.621570
      5         17           0        0.000555    0.000962    1.644718
      6          9           0       -0.000186   -0.000921   -2.593460
 ---------------------------------------------------------------------

 SCF Done:  E(RHF) =  -598.617135025     A.U. after   12 cycles
 E2 =    -0.6739630015D+00 EUMP2 =    -0.59929109802639D+03

 Mulliken atomic charges:
              1
     1  C   -0.837200
     2  H    0.438429
     3  H    0.438427
     4  H    0.438431
     5  Cl  -0.636058
     6  F   -0.842028
 Sum of Mulliken atomic charges =  -1.00000

 Dipole moment (field-independent basis, Debye):
    X=             -0.0006    Y=              0.0007    Z=              3.9045  Tot=              3.9045
 Quadrupole moment (field-independent basis, Debye-Ang):
   XX=            -28.1878   YY=            -28.1878   ZZ=            -62.7442
   XY=              0.0000   XZ=             -0.0050   YZ=             -0.0145

 Normal termination of Gaussian 09 at Tue Aug 10 19:25:48 2021.
